LAMMPS data file. CGCMM style. atom_style full generated by VMD/TopoTools v1.7 on Thu Mar 04 11:15:17 EST 2021
 6606 atoms
 6060 bonds
 6014 angles
 0 dihedrals
 0 impropers
 8 atom types
 1 bond types
 1 angle types
 0 dihedral types
 0 improper types
 -17.863556 18.443248  xlo xhi
 -17.428387 18.108817  ylo yhi
 -18.746613 17.600871  zlo zhi

# Pair Coeffs
#
# 1  1
# 2  2
# 3  3
# 4  4
# 5  5
# 6  6
# 7  7
# 8  8

# Bond Coeffs
#
# 1  1

# Angle Coeffs
#
# 1  1

 Masses

 1 1.000000 # 1
 2 1.000000 # 2
 3 1.000000 # 3
 4 1.000000 # 4
 5 1.000000 # 5
 6 1.000000 # 6
 7 1.000000 # 7
 8 1.000000 # 8

 Atoms # full

1 1 1 0.000000 12.763147 -8.364303 -5.753223 # 1 
2 1 1 0.000000 12.106747 -8.624799 -6.381697 # 1 
3 1 1 0.000000 11.562055 -7.941115 -6.685050 # 1 
4 1 1 0.000000 11.031105 -7.733140 -7.441642 # 1 
5 1 1 0.000000 10.612632 -6.851038 -7.256922 # 1 
6 1 1 0.000000 10.583254 -6.038771 -6.613207 # 1 
7 1 1 0.000000 10.927732 -5.758352 -5.777364 # 1 
8 1 1 0.000000 10.613135 -5.895849 -4.950009 # 1 
9 1 1 0.000000 9.785947 -5.655852 -4.387061 # 1 
10 1 1 0.000000 9.374090 -4.974341 -3.788537 # 1 
11 1 1 0.000000 8.560595 -4.374012 -3.494642 # 1 
12 1 1 0.000000 8.307167 -3.458620 -3.466901 # 1 
13 1 1 0.000000 8.521345 -3.035161 -4.315798 # 1 
14 1 1 0.000000 8.330017 -3.009099 -5.220627 # 1 
15 1 1 0.000000 8.212848 -2.270618 -5.902313 # 1 
16 1 1 0.000000 7.550683 -1.823188 -6.488245 # 1 
17 1 1 0.000000 7.170924 -2.555763 -7.045887 # 1 
18 1 1 0.000000 8.059303 -2.763273 -7.243342 # 1 
19 1 1 0.000000 8.661307 -3.037058 -6.566504 # 1 
20 1 1 0.000000 9.086073 -3.838016 -6.226010 # 1 
21 1 1 0.000000 8.885942 -4.601709 -5.717138 # 1 
22 1 1 0.000000 8.180479 -4.357828 -5.060145 # 1 
23 1 1 0.000000 7.470738 -3.926757 -5.662694 # 1 
24 1 1 0.000000 6.888549 -3.754495 -6.402022 # 1 
25 1 1 0.000000 6.797056 -4.607539 -6.034638 # 1 
26 1 1 0.000000 7.012862 -5.491754 -5.748518 # 1 
27 1 1 0.000000 7.945994 -5.324470 -5.590780 # 1 
28 1 1 0.000000 8.694592 -5.740063 -5.772011 # 1 
29 1 1 0.000000 9.520922 -6.250298 -5.698417 # 1 
30 1 1 0.000000 9.526567 -6.504413 -6.687979 # 1 
31 1 1 0.000000 9.210363 -6.131394 -7.461251 # 1 
32 1 1 0.000000 9.135922 -5.640514 -8.301469 # 1 
33 1 1 0.000000 9.433746 -4.710627 -8.531270 # 1 
34 1 1 0.000000 9.835831 -3.866635 -8.270850 # 1 
35 1 1 0.000000 10.742707 -3.934309 -7.882502 # 1 
36 1 1 0.000000 11.000874 -4.944533 -8.017871 # 1 
37 1 1 0.000000 10.186587 -4.885358 -7.514461 # 1 
38 1 1 0.000000 9.538983 -5.280339 -6.856750 # 1 
39 1 1 0.000000 8.718412 -5.030746 -7.281780 # 1 
40 1 1 0.000000 8.042646 -5.227629 -7.970583 # 1 
41 1 1 0.000000 8.302722 -4.380035 -8.310238 # 1 
42 1 1 0.000000 8.673068 -3.679921 -7.725426 # 1 
43 1 1 0.000000 8.120803 -4.202802 -7.097860 # 1 
44 1 1 0.000000 7.699638 -5.066175 -7.058325 # 1 
45 1 1 0.000000 7.855273 -6.004310 -6.791079 # 1 
46 1 1 0.000000 8.323272 -6.784507 -7.249765 # 1 
47 1 1 0.000000 8.925606 -7.030100 -8.046572 # 1 
48 1 1 0.000000 9.522264 -6.629597 -8.723531 # 1 
49 1 2 0.000000 9.994666 -5.920716 -9.137815 # 2 
50 1 2 0.000000 9.870102 -5.392360 -9.930108 # 2 
51 1 2 0.000000 9.910811 -5.385278 -10.859266 # 2 
52 1 1 0.000000 10.886454 -5.465372 -10.977302 # 1 
53 1 1 0.000000 10.892042 -5.186387 -10.028967 # 1 
54 1 1 0.000000 10.678722 -4.422278 -9.562531 # 1 
55 1 1 0.000000 9.822071 -3.969967 -9.378444 # 1 
56 1 1 0.000000 9.431266 -3.156017 -9.140468 # 1 
57 1 2 0.000000 9.116447 -2.616270 -8.376385 # 2 
58 1 2 0.000000 8.759162 -1.802439 -8.043640 # 2 
59 1 2 0.000000 8.782324 -1.280628 -8.840153 # 2 
60 1 1 0.000000 9.709376 -1.105837 -9.157247 # 1 
61 1 2 0.000000 10.166060 -0.553309 -8.595750 # 2 
62 1 2 0.000000 11.048822 -0.026289 -8.558509 # 2 
63 1 2 0.000000 11.329871 -0.862136 -9.036214 # 2 
64 1 2 0.000000 11.557549 -1.827363 -8.976184 # 2 
65 1 2 0.000000 12.147245 -2.504706 -8.531120 # 2 
66 1 2 0.000000 11.691354 -3.026985 -7.809974 # 2 
67 1 2 0.000000 10.732145 -2.966674 -7.858158 # 2 
68 1 2 0.000000 10.420579 -2.561421 -8.637957 # 2 
69 1 2 0.000000 10.713195 -3.441388 -8.852530 # 2 
70 1 2 0.000000 11.711965 -3.629303 -8.851944 # 2 
71 1 2 0.000000 12.635093 -3.899301 -8.985353 # 2 
72 1 2 0.000000 13.336575 -3.238683 -8.660646 # 2 
73 1 2 0.000000 13.590713 -2.212038 -8.606167 # 2 
74 1 2 0.000000 12.915498 -2.006311 -7.923391 # 2 
75 1 2 0.000000 13.672223 -2.511048 -7.522143 # 2 
76 1 2 0.000000 13.467911 -3.413428 -7.490179 # 2 
77 1 2 0.000000 12.524733 -3.681192 -7.468981 # 2 
78 1 2 0.000000 11.928886 -3.413716 -6.753024 # 2 
79 1 2 0.000000 12.293667 -3.377067 -5.884778 # 2 
80 1 2 0.000000 13.024034 -2.800537 -5.572513 # 2 
81 1 2 0.000000 12.958451 -2.757844 -6.528080 # 2 
82 1 2 0.000000 12.206508 -2.433085 -6.977804 # 2 
83 1 2 0.000000 11.778294 -1.901425 -7.641005 # 2 
84 1 2 0.000000 10.862683 -1.709944 -7.831321 # 2 
85 1 2 0.000000 9.925361 -1.878534 -7.597543 # 2 
86 1 2 0.000000 9.774742 -2.803413 -7.247771 # 2 
87 1 2 0.000000 9.904810 -3.218204 -6.315925 # 2 
88 1 2 0.000000 9.824032 -3.533831 -5.383379 # 2 
89 1 2 0.000000 10.291738 -3.009817 -4.759957 # 2 
90 1 2 0.000000 11.085457 -3.382463 -5.181032 # 2 
91 1 2 0.000000 11.873757 -3.786673 -4.827383 # 2 
92 1 2 0.000000 12.225249 -4.681466 -4.826148 # 2 
93 1 2 0.000000 12.044850 -5.592333 -5.159687 # 2 
94 1 1 0.000000 11.838177 -6.257300 -5.779315 # 1 
95 1 2 0.000000 12.045976 -5.872236 -6.604195 # 2 
96 1 2 0.000000 12.659354 -5.083983 -6.490242 # 2 
97 1 2 0.000000 13.092459 -4.468666 -5.888116 # 2 
98 1 2 0.000000 13.694461 -3.735273 -5.787107 # 2 
99 1 2 0.000000 14.038955 -2.870727 -5.534640 # 2 
100 1 2 0.000000 13.678687 -2.005000 -5.626035 # 2 
101 1 2 0.000000 13.740315 -1.432908 -4.878063 # 2 
102 1 2 0.000000 14.165389 -1.499478 -4.032979 # 2 
103 1 2 0.000000 14.263961 -2.406025 -4.451326 # 2 
104 1 2 0.000000 13.332821 -2.499960 -4.347147 # 2 
105 1 2 0.000000 12.444573 -2.436689 -4.807799 # 2 
106 1 6 0.000000 11.840637 -2.314727 -5.614300 # 6 
107 1 6 0.000000 11.877162 -1.422303 -5.964506 # 6 
108 1 2 0.000000 12.205381 -0.919940 -5.208601 # 2 
109 1 2 0.000000 12.916586 -0.310821 -5.103950 # 2 
110 1 1 0.000000 13.368583 -0.387536 -4.229660 # 1 
111 1 1 0.000000 13.056151 -0.334261 -3.343313 # 1 
112 1 5 0.000000 12.900118 0.574911 -3.057273 # 5 
113 1 5 0.000000 12.452517 1.375128 -2.698113 # 5 
114 1 1 0.000000 12.194448 2.036837 -3.338677 # 1 
115 1 1 0.000000 11.830208 1.822335 -4.223907 # 1 
116 1 1 0.000000 11.347782 2.297400 -4.897147 # 1 
117 1 1 0.000000 11.019938 3.198680 -4.696317 # 1 
118 1 1 0.000000 10.691520 2.710210 -3.924285 # 1 
119 1 6 0.000000 10.456192 1.805065 -3.551581 # 6 
120 1 6 0.000000 10.736876 0.924077 -3.203671 # 6 
121 1 3 0.000000 10.100281 0.165613 -3.187741 # 3 
122 1 3 0.000000 9.567749 -0.094208 -4.119486 # 3 
123 1 3 0.000000 10.060904 -0.584511 -4.793907 # 3 
124 1 3 0.000000 10.799153 -1.233409 -4.950450 # 3 
125 1 3 0.000000 11.434285 -1.859353 -4.378674 # 3 
126 1 3 0.000000 11.478731 -2.649436 -3.796158 # 3 
127 1 3 0.000000 11.322920 -3.526935 -3.537771 # 3 
128 1 3 0.000000 10.626001 -3.380421 -2.887732 # 3 
129 1 3 0.000000 10.549428 -2.447134 -3.033176 # 3 
130 1 4 0.000000 10.284205 -1.637598 -3.394699 # 4 
131 1 4 0.000000 10.724789 -0.936362 -3.925932 # 4 
132 1 4 0.000000 10.936128 -0.217887 -4.499752 # 4 
133 1 4 0.000000 11.688704 0.321628 -4.183296 # 4 
134 1 4 0.000000 12.619935 0.666436 -4.167778 # 4 
135 1 4 0.000000 13.203777 1.473519 -4.191363 # 4 
136 1 3 0.000000 13.402915 2.392794 -4.319418 # 3 
137 1 3 0.000000 12.770890 3.109162 -3.958622 # 3 
138 1 3 0.000000 11.894017 3.070542 -3.587832 # 3 
139 1 3 0.000000 11.204271 3.564285 -3.087022 # 3 
140 1 3 0.000000 10.403021 4.110701 -2.964437 # 3 
141 1 3 0.000000 9.631474 4.580287 -2.961426 # 3 
142 1 3 0.000000 8.935886 3.953439 -3.193935 # 3 
143 1 7 0.000000 9.338197 3.711032 -4.038393 # 7 
144 1 7 0.000000 10.200743 3.993588 -4.024648 # 7 
145 1 1 0.000000 10.749691 4.371862 -4.768048 # 1 
146 1 1 0.000000 11.558810 4.042718 -5.128732 # 1 
147 1 5 0.000000 12.097314 3.743898 -4.416271 # 5 
148 1 1 0.000000 11.940073 4.615126 -4.066362 # 1 
149 1 2 0.000000 11.719224 5.440499 -4.451192 # 2 
150 1 1 0.000000 10.907590 5.797382 -4.743781 # 1 
151 1 1 0.000000 10.136568 6.226807 -5.265934 # 1 
152 1 1 0.000000 9.698246 6.903913 -5.814047 # 1 
153 1 1 0.000000 9.751202 7.417830 -6.671711 # 1 
154 1 1 0.000000 9.568187 7.999150 -5.956474 # 1 
155 1 1 0.000000 8.933478 7.798491 -5.298288 # 1 
156 1 1 0.000000 8.712616 7.067480 -4.731259 # 1 
157 1 1 0.000000 7.816046 6.766027 -4.718805 # 1 
158 1 1 0.000000 8.219830 6.120037 -5.266922 # 1 
159 1 2 0.000000 8.681133 5.327599 -5.356241 # 2 
160 1 2 0.000000 8.985085 4.423714 -5.250758 # 2 
161 1 1 0.000000 9.569285 3.636301 -5.253283 # 1 
162 1 1 0.000000 9.346706 2.595384 -5.289308 # 1 
163 1 2 0.000000 9.794898 2.177528 -4.567982 # 2 
164 1 2 0.000000 10.441636 1.439789 -4.832549 # 2 
165 1 2 0.000000 9.913244 0.665613 -5.154767 # 2 
166 1 2 0.000000 10.008284 0.050138 -5.987036 # 2 
167 1 2 0.000000 10.233738 -0.829909 -6.016564 # 2 
168 1 1 0.000000 11.079878 -0.450288 -5.793631 # 1 
169 1 1 0.000000 11.457836 0.399591 -5.495217 # 1 
170 1 2 0.000000 11.403235 1.217631 -6.040225 # 2 
171 1 2 0.000000 11.530004 1.910455 -6.688325 # 2 
172 1 2 0.000000 11.135849 2.176628 -7.570541 # 2 
173 1 2 0.000000 11.089455 2.381122 -8.572853 # 2 
174 1 1 0.000000 11.576011 3.152322 -8.861425 # 1 
175 1 2 0.000000 11.521140 4.146354 -8.826404 # 2 
176 1 2 0.000000 12.313097 4.680813 -8.859393 # 2 
177 1 2 0.000000 12.576220 5.421969 -8.265778 # 2 
178 1 2 0.000000 12.240726 6.019893 -7.596976 # 2 
179 1 2 0.000000 11.650043 6.134761 -6.804266 # 2 
180 1 2 0.000000 11.091812 6.005329 -5.991870 # 2 
181 1 1 0.000000 10.226376 6.030739 -5.695576 # 1 
182 1 1 0.000000 10.264026 5.515991 -6.475657 # 1 
183 1 1 0.000000 10.883039 5.572284 -7.281398 # 1 
184 1 1 0.000000 11.734211 5.084579 -7.490302 # 1 
185 1 2 0.000000 12.253767 4.260444 -7.279269 # 2 
186 1 2 0.000000 12.587007 3.419804 -6.986882 # 2 
187 1 2 0.000000 12.286563 3.127334 -6.129365 # 2 
188 1 2 0.000000 11.673309 3.913314 -6.203713 # 2 
189 1 2 0.000000 12.090070 3.234385 -5.681493 # 2 
190 1 2 0.000000 12.837340 2.747785 -5.261560 # 2 
191 1 2 0.000000 13.760209 3.104988 -5.073170 # 2 
192 1 2 0.000000 14.592868 3.566177 -5.312300 # 2 
193 1 2 0.000000 15.234708 3.895000 -4.694690 # 2 
194 1 2 0.000000 15.134607 4.242842 -3.813454 # 2 
195 1 2 0.000000 14.231865 3.967786 -3.639965 # 2 
196 1 2 0.000000 13.702964 3.144119 -3.482988 # 2 
197 1 2 0.000000 14.205888 2.347512 -3.388368 # 2 
198 1 2 0.000000 14.576197 1.466914 -3.409745 # 2 
199 1 2 0.000000 14.709353 0.939959 -4.224156 # 2 
200 1 2 0.000000 14.634639 0.618760 -5.114586 # 2 
201 1 1 0.000000 14.113645 0.277657 -5.834995 # 1 
202 1 1 0.000000 13.534926 0.676083 -6.473265 # 1 
203 1 1 0.000000 12.747053 1.248952 -6.434759 # 1 
204 1 1 0.000000 13.248894 1.688869 -7.067684 # 1 
205 1 1 0.000000 13.460955 2.590705 -7.461383 # 1 
206 1 1 0.000000 14.002563 3.268029 -7.855454 # 1 
207 1 1 0.000000 13.095859 3.587637 -7.856266 # 1 
208 1 1 0.000000 12.307397 3.096058 -7.995149 # 1 
209 1 1 0.000000 12.355191 2.155397 -7.995028 # 1 
210 1 2 0.000000 11.733809 1.442029 -8.072067 # 2 
211 1 2 0.000000 11.206297 0.808759 -7.673993 # 2 
212 1 1 0.000000 10.463768 0.243741 -7.603364 # 1 
213 1 1 0.000000 9.972104 1.053110 -7.748988 # 1 
214 1 2 0.000000 10.039258 2.001538 -7.752809 # 2 
215 1 2 0.000000 9.988299 3.002698 -7.931329 # 2 
216 1 2 0.000000 10.302537 3.903972 -8.123281 # 2 
217 1 2 0.000000 10.427489 4.827798 -8.170827 # 2 
218 1 2 0.000000 10.647199 5.639822 -8.655097 # 2 
219 1 2 0.000000 11.419334 6.176200 -8.917740 # 2 
220 1 2 0.000000 11.310979 6.843469 -8.177589 # 2 
221 1 2 0.000000 11.587471 7.012067 -7.235041 # 2 
222 1 2 0.000000 11.377833 7.076453 -6.322998 # 2 
223 1 2 0.000000 11.509773 7.766594 -5.652857 # 2 
224 1 2 0.000000 10.674880 8.027094 -6.024577 # 2 
225 1 1 0.000000 10.318009 7.454225 -6.802321 # 1 
226 1 2 0.000000 10.517012 6.684292 -7.353310 # 2 
227 1 1 0.000000 10.485145 5.746177 -7.472858 # 1 
228 1 1 0.000000 9.553045 5.972951 -7.768529 # 1 
229 1 1 0.000000 9.130036 5.132322 -7.867052 # 1 
230 1 1 0.000000 8.485383 4.467610 -7.902109 # 1 
231 1 1 0.000000 8.400678 3.516815 -7.885541 # 1 
232 1 1 0.000000 8.464788 2.525339 -7.894294 # 1 
233 1 2 0.000000 8.739916 1.630505 -8.057829 # 2 
234 1 1 0.000000 9.045368 0.692246 -8.152792 # 1 
235 1 1 0.000000 9.691073 0.549704 -8.843357 # 1 
236 1 1 0.000000 9.832814 1.263277 -9.536188 # 1 
237 1 1 0.000000 9.714583 2.216458 -9.567238 # 1 
238 1 2 0.000000 9.053330 2.836849 -9.426900 # 2 
239 1 2 0.000000 8.496451 3.487273 -8.948186 # 2 
240 1 2 0.000000 8.121462 4.319522 -9.284953 # 2 
241 1 2 0.000000 8.417840 4.243949 -10.198544 # 2 
242 1 2 0.000000 9.028379 3.719056 -10.763230 # 2 
243 1 2 0.000000 9.919819 3.898571 -11.124434 # 2 
244 1 2 0.000000 10.124829 4.765268 -10.804175 # 2 
245 1 2 0.000000 10.034550 5.298282 -9.962143 # 2 
246 1 2 0.000000 10.026260 6.130932 -9.542029 # 2 
247 1 1 0.000000 9.441756 6.785830 -9.105906 # 1 
248 1 2 0.000000 9.098787 7.311074 -8.381207 # 2 
249 1 2 0.000000 9.174485 8.264161 -8.382743 # 2 
250 1 2 0.000000 10.022960 8.861560 -8.194596 # 2 
251 2 1 0.000000 -0.606730 4.640236 3.090583 # 1 
252 2 1 0.000000 0.241508 4.670868 3.426952 # 1 
253 2 1 0.000000 -0.217354 4.675575 4.246152 # 1 
254 2 1 0.000000 -0.086644 3.655158 4.150743 # 1 
255 2 1 0.000000 -1.095982 3.510172 4.207672 # 1 
256 2 1 0.000000 -1.487546 3.655229 3.323735 # 1 
257 2 1 0.000000 -1.087953 3.888666 2.519051 # 1 
258 2 1 0.000000 -0.445077 3.503111 1.927498 # 1 
259 2 1 0.000000 -0.346058 3.145465 2.858530 # 1 
260 2 1 0.000000 0.263647 2.579696 3.498075 # 1 
261 2 1 0.000000 0.421173 1.692319 3.817303 # 1 
262 2 1 0.000000 1.176469 1.373799 4.253216 # 1 
263 2 1 0.000000 1.582590 2.249098 4.563803 # 1 
264 2 1 0.000000 1.002097 2.917842 4.072414 # 1 
265 2 1 0.000000 0.962645 3.525785 3.374089 # 1 
266 2 1 0.000000 1.284384 3.824475 2.496605 # 1 
267 2 1 0.000000 2.104779 3.967570 1.971071 # 1 
268 2 1 0.000000 2.040923 4.147608 1.009362 # 1 
269 2 1 0.000000 1.616237 4.177184 0.135565 # 1 
270 2 1 0.000000 1.356231 4.791045 -0.560474 # 1 
271 2 1 0.000000 0.701489 4.627323 -1.222207 # 1 
272 2 1 0.000000 -0.111411 4.259144 -1.197911 # 1 
273 2 1 0.000000 -0.390712 4.183753 -0.279741 # 1 
274 2 1 0.000000 -0.048788 4.441998 0.619078 # 1 
275 2 1 0.000000 0.345951 5.004059 -0.089014 # 1 
276 2 1 0.000000 0.253900 5.936720 -0.169599 # 1 
277 2 1 0.000000 0.084619 5.903347 0.824959 # 1 
278 2 1 0.000000 0.332660 5.223227 1.606743 # 1 
279 2 1 0.000000 0.783737 4.450129 1.321720 # 1 
280 2 1 0.000000 0.828552 3.459524 0.948992 # 1 
281 2 1 0.000000 0.363338 2.747961 0.519970 # 1 
282 2 1 0.000000 -0.565616 3.153560 0.482678 # 1 
283 2 1 0.000000 -0.876532 3.934227 0.952310 # 1 
284 2 1 0.000000 -0.656502 4.665712 1.464256 # 1 
285 2 1 0.000000 -0.830227 5.548881 1.022916 # 1 
286 2 1 0.000000 -0.987617 5.573964 2.011753 # 1 
287 2 1 0.000000 -1.911535 5.748259 1.830115 # 1 
288 2 1 0.000000 -2.171213 5.835497 0.906896 # 1 
289 2 1 0.000000 -2.168131 4.936298 0.672309 # 1 
290 2 1 0.000000 -2.187639 4.493509 -0.177709 # 1 
291 2 1 0.000000 -2.146546 4.734044 -1.167899 # 1 
292 2 1 0.000000 -2.204329 4.096850 -1.853189 # 1 
293 2 1 0.000000 -2.053455 4.996431 -2.186486 # 1 
294 2 1 0.000000 -2.045594 5.709130 -1.488242 # 1 
295 2 1 0.000000 -2.136331 6.516436 -0.974042 # 1 
296 2 1 0.000000 -2.757836 7.255664 -1.060663 # 1 
297 2 1 0.000000 -3.553673 7.367323 -1.579393 # 1 
298 2 1 0.000000 -4.335860 6.851503 -1.953668 # 1 
299 2 2 0.000000 -5.232191 6.747635 -2.302483 # 2 
300 2 2 0.000000 -5.902224 7.054375 -2.993752 # 2 
301 2 2 0.000000 -4.954357 7.144080 -3.152763 # 2 
302 2 1 0.000000 -4.369359 6.395933 -2.901179 # 1 
303 2 1 0.000000 -4.397913 5.728415 -2.188216 # 1 
304 2 1 0.000000 -3.824868 5.318560 -1.519713 # 1 
305 2 1 0.000000 -3.116446 5.504560 -0.913733 # 1 
306 2 1 0.000000 -2.865754 5.946493 -0.023766 # 1 
307 2 2 0.000000 -3.746962 6.307830 -0.077867 # 2 
308 2 2 0.000000 -4.113458 7.155588 -0.367959 # 2 
309 2 2 0.000000 -5.020848 7.448356 -0.133311 # 2 
310 2 1 0.000000 -5.673961 7.266580 -0.791334 # 1 
311 2 2 0.000000 -6.009657 7.063672 -1.646540 # 2 
312 2 2 0.000000 -6.616684 7.600614 -2.095895 # 2 
313 2 2 0.000000 -7.183246 7.030052 -2.705156 # 2 
314 2 2 0.000000 -7.493115 6.132507 -2.757552 # 2 
315 2 2 0.000000 -7.600147 5.128430 -2.801728 # 2 
316 2 2 0.000000 -7.118143 4.546066 -3.415824 # 2 
317 2 2 0.000000 -6.691302 3.762972 -3.940025 # 2 
318 2 2 0.000000 -5.854871 4.106972 -4.293087 # 2 
319 2 2 0.000000 -5.261394 4.607598 -3.683792 # 2 
320 2 2 0.000000 -5.732488 5.109166 -3.024424 # 2 
321 2 2 0.000000 -6.506199 5.670004 -2.665061 # 2 
322 2 2 0.000000 -6.837865 6.182656 -1.892571 # 2 
323 2 2 0.000000 -6.469769 6.259164 -1.062778 # 2 
324 2 2 0.000000 -5.905535 5.907133 -0.351510 # 2 
325 2 2 0.000000 -6.081799 5.033101 0.042982 # 2 
326 2 2 0.000000 -6.133142 4.668429 0.967955 # 2 
327 2 2 0.000000 -6.325102 5.628909 0.855901 # 2 
328 2 2 0.000000 -6.950250 5.812108 0.114182 # 2 
329 2 2 0.000000 -7.158288 5.266643 -0.635054 # 2 
330 2 2 0.000000 -6.551786 4.966132 -1.320369 # 2 
331 2 2 0.000000 -6.286728 4.136710 -1.764523 # 2 
332 2 2 0.000000 -6.467573 3.409952 -2.337260 # 2 
333 2 2 0.000000 -7.250880 2.850246 -2.489898 # 2 
334 2 2 0.000000 -7.656526 2.508675 -1.563593 # 2 
335 2 2 0.000000 -8.181256 3.353714 -1.569123 # 2 
336 2 2 0.000000 -8.320056 4.264121 -1.706844 # 2 
337 2 2 0.000000 -9.093418 4.756926 -1.676432 # 2 
338 2 2 0.000000 -10.080936 4.553707 -2.002231 # 2 
339 2 2 0.000000 -10.849188 4.923748 -2.500388 # 2 
340 2 2 0.000000 -10.403643 5.773785 -2.334764 # 2 
341 2 2 0.000000 -9.589211 5.896421 -1.887123 # 2 
342 2 2 0.000000 -8.785701 5.507740 -2.243288 # 2 
343 2 2 0.000000 -8.073235 5.349234 -1.552729 # 2 
344 2 1 0.000000 -8.081507 6.250639 -1.786478 # 1 
345 2 2 0.000000 -8.487582 6.626137 -2.520016 # 2 
346 2 2 0.000000 -9.401593 6.533212 -2.790492 # 2 
347 2 2 0.000000 -10.030580 7.141819 -2.608757 # 2 
348 2 2 0.000000 -9.833458 7.835267 -3.212199 # 2 
349 2 2 0.000000 -9.040662 8.424829 -3.296869 # 2 
350 2 2 0.000000 -8.191263 7.954541 -3.286468 # 2 
351 2 2 0.000000 -8.443850 7.728573 -2.370820 # 2 
352 2 2 0.000000 -8.439535 7.846317 -1.378578 # 2 
353 2 2 0.000000 -8.950473 7.518309 -0.648846 # 2 
354 2 2 0.000000 -8.378339 7.092070 0.022758 # 2 
355 2 2 0.000000 -8.504241 6.163030 0.409247 # 2 
356 2 6 0.000000 -9.121573 5.467970 0.023783 # 6 
357 2 6 0.000000 -9.295931 4.530813 -0.079422 # 6 
358 2 2 0.000000 -8.658972 4.872044 -0.708309 # 2 
359 2 2 0.000000 -9.024118 4.412210 -1.477080 # 2 
360 2 1 0.000000 -9.201827 3.460944 -1.573983 # 1 
361 2 1 0.000000 -9.173879 2.585381 -1.924850 # 1 
362 2 5 0.000000 -9.341486 1.669165 -2.145575 # 5 
363 2 5 0.000000 -9.070397 0.774158 -2.294681 # 5 
364 2 1 0.000000 -8.372634 0.599271 -1.532541 # 1 
365 2 1 0.000000 -8.433667 -0.367515 -1.775088 # 1 
366 2 1 0.000000 -9.342658 -0.162173 -1.553879 # 1 
367 2 1 0.000000 -9.607216 0.480357 -0.874733 # 1 
368 2 1 0.000000 -9.626390 1.350540 -0.459699 # 1 
369 2 6 0.000000 -9.607044 2.305230 -0.265576 # 6 
370 2 6 0.000000 -10.504490 2.074212 -0.391880 # 6 
371 2 3 0.000000 -10.404258 1.534478 -1.182388 # 3 
372 2 3 0.000000 -10.567467 2.161504 -1.937619 # 3 
373 2 3 0.000000 -10.001154 2.685963 -2.481371 # 3 
374 2 3 0.000000 -9.962543 2.995180 -3.437924 # 3 
375 2 3 0.000000 -10.278028 3.208637 -4.311232 # 3 
376 2 3 0.000000 -10.529174 3.776022 -5.052966 # 3 
377 2 3 0.000000 -10.475621 3.930565 -6.008545 # 3 
378 2 3 0.000000 -10.047972 3.030077 -5.948215 # 3 
379 2 3 0.000000 -9.882231 2.521298 -5.147650 # 3 
380 2 4 0.000000 -8.963811 2.420047 -5.196939 # 4 
381 2 4 0.000000 -8.008137 2.335480 -5.242647 # 4 
382 2 4 0.000000 -7.398523 2.795818 -5.817605 # 4 
383 2 4 0.000000 -7.149063 1.886063 -5.733485 # 4 
384 2 4 0.000000 -7.633563 1.359224 -5.103976 # 4 
385 2 4 0.000000 -8.438122 1.575825 -4.652911 # 4 
386 2 3 0.000000 -8.570921 1.849935 -3.659181 # 3 
387 2 3 0.000000 -9.491175 1.896622 -3.376643 # 3 
388 2 3 0.000000 -10.420791 1.904754 -3.056144 # 3 
389 2 3 0.000000 -11.029659 1.403150 -2.572611 # 3 
390 2 3 0.000000 -11.582627 2.073474 -2.222801 # 3 
391 2 3 0.000000 -11.871996 3.026711 -2.166736 # 3 
392 2 3 0.000000 -11.234176 3.045463 -2.928001 # 3 
393 2 7 0.000000 -11.183691 2.509110 -3.735113 # 7 
394 2 7 0.000000 -10.558367 1.830331 -4.093418 # 7 
395 2 1 0.000000 -9.824697 1.598238 -4.649529 # 1 
396 2 1 0.000000 -9.153958 0.952918 -5.019277 # 1 
397 2 5 0.000000 -8.768970 0.155659 -5.353937 # 5 
398 2 1 0.000000 -7.918351 -0.094294 -5.008338 # 1 
399 2 2 0.000000 -7.632403 -0.340966 -4.143739 # 2 
400 2 1 0.000000 -6.919093 0.166593 -4.458195 # 1 
401 2 1 0.000000 -7.218280 0.427889 -5.415656 # 1 
402 2 1 0.000000 -7.859028 0.822538 -6.076311 # 1 
403 2 1 0.000000 -8.702377 1.141366 -6.185964 # 1 
404 2 1 0.000000 -9.318262 1.195539 -6.864782 # 1 
405 2 1 0.000000 -9.381010 1.023192 -7.797627 # 1 
406 2 1 0.000000 -9.884576 1.128570 -8.661135 # 1 
407 2 1 0.000000 -10.796342 1.349191 -8.313532 # 1 
408 2 1 0.000000 -10.240852 2.010160 -7.987484 # 1 
409 2 2 0.000000 -10.173214 2.980657 -7.758732 # 2 
410 2 2 0.000000 -9.882629 3.679356 -7.097843 # 2 
411 2 1 0.000000 -9.502726 4.183930 -6.354239 # 1 
412 2 1 0.000000 -9.497611 4.228666 -5.423148 # 1 
413 2 2 0.000000 -8.927499 4.661019 -4.662559 # 2 
414 2 2 0.000000 -8.622481 5.412787 -4.210601 # 2 
415 2 2 0.000000 -8.736318 5.102149 -3.293021 # 2 
416 2 2 0.000000 -8.443566 4.344961 -2.771212 # 2 
417 2 2 0.000000 -8.825418 3.668135 -3.315123 # 2 
418 2 1 0.000000 -8.691532 3.422711 -4.170835 # 1 
419 2 1 0.000000 -8.269151 3.562664 -5.015076 # 1 
420 2 2 0.000000 -8.356597 4.320139 -5.564077 # 2 
421 2 2 0.000000 -8.290700 5.303240 -5.588664 # 2 
422 2 2 0.000000 -7.708440 6.017108 -5.785125 # 2 
423 2 2 0.000000 -8.021299 6.774921 -6.301503 # 2 
424 2 1 0.000000 -8.912842 6.337622 -6.094123 # 1 
425 2 2 0.000000 -9.514200 5.766795 -5.623962 # 2 
426 2 2 0.000000 -10.196548 5.231291 -5.267421 # 2 
427 2 2 0.000000 -9.739287 5.354483 -6.084254 # 2 
428 2 2 0.000000 -9.024710 5.504678 -6.662335 # 2 
429 2 2 0.000000 -8.159855 5.595964 -7.222748 # 2 
430 2 2 0.000000 -7.339248 5.492326 -7.663028 # 2 
431 2 1 0.000000 -6.537538 5.045156 -7.974148 # 1 
432 2 1 0.000000 -6.199144 4.363685 -7.391531 # 1 
433 2 1 0.000000 -5.703105 5.189201 -7.361007 # 1 
434 2 1 0.000000 -6.037113 6.126801 -6.956516 # 1 
435 2 2 0.000000 -6.276445 7.009348 -6.600706 # 2 
436 2 2 0.000000 -5.604775 7.159454 -5.836699 # 2 
437 2 2 0.000000 -5.614823 6.412290 -5.279429 # 2 
438 2 2 0.000000 -6.598653 6.301415 -5.235053 # 2 
439 2 2 0.000000 -6.588361 7.195833 -4.848086 # 2 
440 2 2 0.000000 -6.515306 8.100315 -4.606878 # 2 
441 2 2 0.000000 -6.647899 9.039253 -4.450454 # 2 
442 2 2 0.000000 -6.369443 10.054376 -4.511158 # 2 
443 2 2 0.000000 -5.954611 9.621038 -5.265255 # 2 
444 2 2 0.000000 -6.506779 8.967670 -5.714951 # 2 
445 2 2 0.000000 -6.901419 9.844583 -5.883904 # 2 
446 2 2 0.000000 -6.870229 10.593818 -5.304371 # 2 
447 2 2 0.000000 -7.568291 10.511199 -4.587470 # 2 
448 2 2 0.000000 -7.864729 10.275394 -3.749632 # 2 
449 2 2 0.000000 -8.223252 9.793139 -2.963093 # 2 
450 2 2 0.000000 -8.456583 9.562403 -2.070501 # 2 
451 2 1 0.000000 -8.420393 9.970396 -1.202462 # 1 
452 2 1 0.000000 -9.096168 10.081554 -0.454640 # 1 
453 2 1 0.000000 -9.527144 9.128765 -0.510991 # 1 
454 2 1 0.000000 -9.806883 8.869629 -1.395948 # 1 
455 2 1 0.000000 -10.230208 9.299154 -2.169062 # 1 
456 2 1 0.000000 -9.630692 9.608853 -2.893455 # 1 
457 2 1 0.000000 -9.191916 9.580379 -3.758662 # 1 
458 2 1 0.000000 -8.733047 9.282522 -4.566117 # 1 
459 2 1 0.000000 -8.078101 8.929453 -5.195035 # 1 
460 2 2 0.000000 -7.964605 9.174879 -6.086112 # 2 
461 2 2 0.000000 -7.525959 8.338923 -6.356612 # 2 
462 2 1 0.000000 -7.262317 7.592810 -5.782445 # 1 
463 2 1 0.000000 -7.793726 7.019691 -5.228367 # 1 
464 2 2 0.000000 -8.627660 6.893795 -4.832418 # 2 
465 2 2 0.000000 -9.416642 6.999658 -4.383539 # 2 
466 2 2 0.000000 -10.101019 7.224046 -4.991265 # 2 
467 2 2 0.000000 -10.918920 7.683955 -5.064593 # 2 
468 2 2 0.000000 -10.695970 7.835530 -5.978904 # 2 
469 2 2 0.000000 -9.921499 8.275491 -6.470085 # 2 
470 2 2 0.000000 -9.459167 8.049038 -7.265749 # 2 
471 2 2 0.000000 -8.754535 7.886749 -7.928999 # 2 
472 2 2 0.000000 -7.884947 8.325169 -7.687081 # 2 
473 2 2 0.000000 -7.186299 8.932995 -7.424791 # 2 
474 2 2 0.000000 -6.451154 9.194851 -6.802018 # 2 
475 2 1 0.000000 -5.690003 9.822840 -6.872221 # 1 
476 2 2 0.000000 -5.199309 10.555442 -7.239716 # 2 
477 2 1 0.000000 -5.699746 11.246666 -7.851957 # 1 
478 2 1 0.000000 -6.208867 11.974538 -8.261004 # 1 
479 2 1 0.000000 -6.656730 12.549916 -8.924757 # 1 
480 2 1 0.000000 -7.151115 12.490097 -9.786772 # 1 
481 2 1 0.000000 -6.775050 12.082249 -10.534937 # 1 
482 2 1 0.000000 -6.284427 11.405945 -11.005882 # 1 
483 2 2 0.000000 -6.426118 10.488421 -10.882366 # 2 
484 2 1 0.000000 -6.048860 9.911335 -10.229918 # 1 
485 2 1 0.000000 -5.903630 9.870763 -9.281925 # 1 
486 2 1 0.000000 -6.591509 9.747486 -8.602484 # 1 
487 2 1 0.000000 -7.136321 10.140992 -7.906193 # 1 
488 2 2 0.000000 -7.973642 10.378755 -7.415006 # 2 
489 2 2 0.000000 -8.328911 10.785690 -6.643275 # 2 
490 2 2 0.000000 -9.071655 11.417402 -6.773424 # 2 
491 2 2 0.000000 -9.364441 12.066989 -7.412761 # 2 
492 2 2 0.000000 -9.288342 13.033903 -7.362701 # 2 
493 2 2 0.000000 -9.428196 13.877679 -6.979338 # 2 
494 2 2 0.000000 -8.711838 13.412614 -6.458352 # 2 
495 2 2 0.000000 -7.913537 13.108465 -6.836934 # 2 
496 2 2 0.000000 -7.892801 12.547752 -7.692429 # 2 
497 2 1 0.000000 -8.523612 11.927014 -8.075539 # 1 
498 2 2 0.000000 -9.207740 12.078604 -8.735076 # 2 
499 2 2 0.000000 -9.254911 12.507456 -9.613182 # 2 
500 2 2 0.000000 -10.138614 12.184319 -9.588089 # 2 
501 3 2 0.000000 2.327410 12.122818 -2.725984 # 2 
502 3 2 0.000000 2.183781 12.469469 -1.879329 # 2 
503 3 2 0.000000 3.020462 12.724300 -1.279236 # 2 
504 3 2 0.000000 3.230689 12.546951 -0.382983 # 2 
505 3 2 0.000000 3.009072 12.396824 0.487324 # 2 
506 3 2 0.000000 3.593154 11.798163 0.927245 # 2 
507 3 2 0.000000 4.529752 12.032134 1.003215 # 2 
508 3 1 0.000000 4.809248 12.594698 0.281354 # 1 
509 3 1 0.000000 4.490297 13.339779 -0.231799 # 1 
510 3 1 0.000000 3.761428 13.534856 0.458336 # 1 
511 3 1 0.000000 2.871967 13.744110 0.820960 # 1 
512 3 1 0.000000 1.933419 13.632938 0.906157 # 1 
513 3 1 0.000000 1.157521 13.217715 0.474813 # 1 
514 3 2 0.000000 1.163945 12.540381 -0.182523 # 2 
515 3 2 0.000000 1.485014 11.812642 -0.783981 # 2 
516 3 2 0.000000 2.406997 11.595137 -0.810640 # 2 
517 3 2 0.000000 3.213462 11.237164 -0.408880 # 2 
518 3 2 0.000000 4.097549 11.054170 -0.047321 # 2 
519 3 2 0.000000 4.429314 10.938231 0.885191 # 2 
520 3 2 0.000000 4.811211 10.767926 1.821663 # 2 
521 3 1 0.000000 4.133787 10.182991 2.301241 # 1 
522 3 2 0.000000 4.423502 9.384997 1.864414 # 2 
523 3 2 0.000000 4.411442 8.522807 1.526405 # 2 
524 3 2 0.000000 3.572681 8.539979 2.121981 # 2 
525 3 1 0.000000 3.313641 7.827650 2.793262 # 1 
526 3 1 0.000000 2.502848 7.729068 3.285733 # 1 
527 3 1 0.000000 1.574717 7.431940 3.073064 # 1 
528 3 1 0.000000 0.713254 7.227191 3.368673 # 1 
529 3 1 0.000000 -0.243996 7.296254 3.719575 # 1 
530 3 1 0.000000 -0.665381 7.651522 2.952497 # 1 
531 3 1 0.000000 -1.488616 7.399061 2.482269 # 1 
532 3 1 0.000000 -2.107901 8.192343 2.354802 # 1 
533 3 1 0.000000 -1.801594 8.742281 3.038012 # 1 
534 3 2 0.000000 -0.911421 8.937688 3.197462 # 2 
535 3 2 0.000000 -0.156138 8.788395 2.590449 # 2 
536 3 2 0.000000 0.007918 8.743193 1.657674 # 2 
537 3 2 0.000000 -0.170374 8.825013 0.726996 # 2 
538 3 1 0.000000 -0.339412 9.105622 -0.201523 # 1 
539 3 1 0.000000 -1.262759 8.983140 -0.292819 # 1 
540 3 1 0.000000 -2.021165 9.634125 -0.050054 # 1 
541 3 2 0.000000 -2.201466 10.010613 0.846279 # 2 
542 3 2 0.000000 -1.241346 10.068181 1.075015 # 2 
543 3 1 0.000000 -0.308409 10.036910 1.211450 # 1 
544 3 1 0.000000 0.680008 10.233672 0.972852 # 1 
545 3 1 0.000000 1.532870 9.775539 0.858095 # 1 
546 3 1 0.000000 1.759296 8.972784 1.382751 # 1 
547 3 1 0.000000 2.166565 8.218255 1.771400 # 1 
548 3 1 0.000000 2.173150 8.992373 2.409321 # 1 
549 3 1 0.000000 2.570764 9.690478 1.884417 # 1 
550 3 2 0.000000 3.319818 9.783437 1.286490 # 2 
551 3 2 0.000000 2.935506 9.615815 0.415969 # 2 
552 3 2 0.000000 3.514733 8.997820 -0.079815 # 2 
553 3 2 0.000000 4.454024 8.824534 0.086262 # 2 
554 3 2 0.000000 5.465158 8.710315 0.104613 # 2 
555 3 1 0.000000 6.388509 8.678277 0.249220 # 1 
556 3 1 0.000000 6.085650 8.737025 1.125469 # 1 
557 3 2 0.000000 5.409180 9.344848 1.341638 # 2 
558 3 2 0.000000 5.096340 9.780661 0.587312 # 2 
559 3 2 0.000000 4.228068 9.940069 0.248122 # 2 
560 3 2 0.000000 3.516370 10.202719 -0.363576 # 2 
561 3 2 0.000000 2.537297 10.086767 -0.599772 # 2 
562 3 1 0.000000 1.609429 9.760145 -0.598822 # 1 
563 3 1 0.000000 0.780910 9.499005 -0.892401 # 1 
564 3 1 0.000000 1.286277 8.715261 -1.014002 # 1 
565 3 1 0.000000 2.226877 8.989862 -1.040929 # 1 
566 3 1 0.000000 2.276989 8.016996 -0.780300 # 1 
567 3 2 0.000000 1.888599 7.269427 -0.287130 # 2 
568 3 2 0.000000 1.085006 7.587459 0.077882 # 2 
569 3 1 0.000000 0.695970 7.847516 0.928911 # 1 
570 3 1 0.000000 1.029016 7.505028 1.732910 # 1 
571 3 1 0.000000 1.126715 6.784053 2.353754 # 1 
572 3 1 0.000000 1.553311 5.925977 2.737905 # 1 
573 3 2 0.000000 2.244871 6.487485 2.245213 # 2 
574 3 1 0.000000 2.881820 7.108569 1.831412 # 1 
575 3 1 0.000000 3.388802 7.271873 1.006517 # 1 
576 3 1 0.000000 3.902074 7.762032 0.333473 # 1 
577 3 2 0.000000 4.589787 7.484806 -0.185171 # 2 
578 3 2 0.000000 4.869607 7.265470 -1.092585 # 2 
579 3 2 0.000000 4.783616 7.615168 -1.975654 # 2 